 Gaussian 16, Revision A.03,
 Gaussian 16:  ES64L-G16RevA.03 25-Dec-2016

 ---------------------------------------------------------------
 #p freq m062X def2TZVP output=wfn geom=allcheckpoint guess=read
 ---------------------------------------------------------------

 Structure from the checkpoint file:  "alanine_m062X_def2TZVP.chk"
 --------------------------
 opt alanine M062X def2TZVP
 --------------------------
 Charge =  0 Multiplicity = 1

                         Standard orientation:
 ---------------------------------------------------------------------
 Center     Atomic      Atomic             Coordinates (Angstroms)
 Number     Number       Type             X           Y           Z
 ---------------------------------------------------------------------
      1          8           0        1.642628    0.747641   -0.449462
      2          8           0        1.088154   -1.119978    0.642744
      3          7           0       -1.425485   -1.067090   -0.421275
      4          6           0       -0.653168    0.160320   -0.419107
      5          6           0       -1.163205    1.244153    0.540638
      6          6           0        0.766115   -0.175899   -0.021867
      7          1           0       -0.619122    0.573643   -1.429732
      8          1           0       -0.548674    2.143221    0.489501
      9          1           0       -2.186418    1.511330    0.274834
     10          1           0       -1.159224    0.866658    1.564706
     11          1           0       -2.415049   -0.869098   -0.349094
     12          1           0       -1.152261   -1.643747    0.367087
     13          1           0        2.514439    0.494876   -0.112621
 ---------------------------------------------------------------------

 SCF Done:  E(RM062X) =  -323.745704295     A.U. after   12 cycles

 The electronic state is 1-A.
 Alpha  occ. eigenvalues --  -19.68087 -19.62611 -14.72953 -10.67975 -10.58577
 Alpha  occ. eigenvalues --  -10.54104  -1.24844  -1.15262  -1.00586  -0.85624
 Alpha  occ. eigenvalues --   -0.76897  -0.67749  -0.61431  -0.58928  -0.55619
 Alpha  occ. eigenvalues --   -0.52658  -0.51739  -0.49157  -0.47951  -0.45022
 Alpha  occ. eigenvalues --   -0.43469  -0.40764  -0.36409  -0.31519
 Alpha virt. eigenvalues --    0.04412   0.05830   0.07168   0.11064   0.11357
 Alpha virt. eigenvalues --    0.12967   0.14933   0.16522   0.17762   0.19359
 Alpha virt. eigenvalues --    0.21270   0.23708   0.25646   0.27383   0.28687

 Mulliken charges:
               1
     1  O   -0.411193
     2  O   -0.332947
     3  N   -0.542838
     4  C   -0.025039
     5  C   -0.444074
     6  C    0.354521
     7  H    0.144393
     8  H    0.151949
     9  H    0.146446
    10  H    0.146979
    11  H    0.224193
    12  H    0.251124
    13  H    0.336485
 Sum of Mulliken charges =  -0.00000

 Dipole moment (field-independent basis, Debye):
    X=             -0.5831    Y=              2.0609    Z=              0.4022  Tot=              2.1793
 Quadrupole moment (field-independent basis, Debye-Ang):
   XX=            -28.9749   YY=            -40.4002   ZZ=            -38.5266
   XY=              1.2520   XZ=             -1.5507   YZ=             -0.2622

  Exact polarizability:  55.009   0.282  52.222   0.420  -2.639  42.789
 Approx polarizability:  59.345   0.240  61.849   1.124  -6.602  53.545

                      1                      2                      3
                      A                      A                      A
 Frequencies --     65.3215               227.4776               242.3789
 Red. masses --      5.1158                 1.1567                 1.9259
 Frc consts  --      0.0129                 0.0353                 0.0667
 IR Inten    --      1.5342                43.1095                 6.9734

                      4                      5                      6
                      A                      A                      A
 Frequencies --    253.7111               321.2685               379.6734
 Red. masses --      1.3097                 3.5019                 2.8381
 Frc consts  --      0.0497                 0.2130                 0.2410
 IR Inten    --      1.2429                 0.3920                 2.2921

                      7                      8                      9
                      A                      A                      A
 Frequencies --    511.1149               594.4126               646.2945
 Red. masses --      3.5745                 1.2051                 3.5202
 Frc consts  --      0.5502                 0.2509                 0.8663
 IR Inten    --     23.9714                83.1943                24.9663

                     10                     11                     12
                      A                      A                      A
 Frequencies --    775.7054               812.5569               854.3481
 Red. masses --      4.3088                 2.4066                 1.3579
 Frc consts  --      1.5276                 0.9362                 0.5840
 IR Inten    --     32.4650                52.5765               147.1337

                     13                     14                     15
                      A                      A                      A
 Frequencies --    934.4988              1045.2235              1105.4112
 Red. masses --      1.7984                 1.4866                 2.7376
 Frc consts  --      0.9253                 0.9569                 1.9709
 IR Inten    --      3.1391                 5.2646                11.8219

                     16                     17                     18
                      A                      A                      A
 Frequencies --   1172.8848              1185.4873              1252.7760
 Red. masses --      1.6375                 1.8918                 1.9048
 Frc consts  --      1.3272                 1.5664                 1.7614
 IR Inten    --    179.7791                86.1475                27.1006

                     19                     20                     21
                      A                      A                      A
 Frequencies --   1326.8488              1359.7363              1398.4282
 Red. masses --      1.6309                 1.3141                 1.2474
 Frc consts  --      1.6917                 1.4315                 1.4372
 IR Inten    --     13.4581                18.7449                 4.3254

                     22                     23                     24
                      A                      A                      A
 Frequencies --   1450.2315              1495.2684              1507.6960
 Red. masses --      1.7669                 1.0495                 1.1880
 Frc consts  --      2.1895                 1.3825                 1.5911
 IR Inten    --     32.0974                 8.0595                21.1089

                     25                     26                     27
                      A                      A                      A
 Frequencies --   1641.3034              1872.7576              3061.9024
 Red. masses --      1.1009                 9.5378                 1.0346
 Frc consts  --      1.7473                19.7089                 5.7149
 IR Inten    --     63.5937               306.8441                12.1748

                     28                     29                     30
                      A                      A                      A
 Frequencies --   3083.4544              3140.9447              3148.9182
 Red. masses --      1.0843                 1.1034                 1.1030
 Frc consts  --      6.0738                 6.4137                 6.4437
 IR Inten    --     11.5006                15.1853                14.5146

                     31                     32                     33
                      A                      A                      A
 Frequencies --   3530.0419              3619.9145              3804.9359
 Red. masses --      1.0494                 1.0935                 1.0643
 Frc consts  --      7.7048                 8.4427                 9.0785
 IR Inten    --      8.0021                14.3340                92.1755

 - Thermochemistry -
 -------------------
 Temperature   298.150 Kelvin.  Pressure   1.00000 Atm.
 Atom     1 has atomic number  8 and mass  15.99491

 Molecular mass:    89.04768 amu.
 Principal axes and moments of inertia in atomic units:
                           1         2         3
     Eigenvalues --   353.07228 578.76974 767.73458
           X            0.99982  -0.01167  -0.01485
           Y            0.01214   0.99943   0.03146
           Z            0.01447  -0.03163   0.99939
 This molecule is an asymmetric top.
 Rotational symmetry number  1.
 Rotational temperatures (Kelvin)      0.24531     0.14965     0.11282
 Rotational constants (GHZ):           5.11153     3.11824     2.35074
 Zero-point vibrational energy     286044.6 (Joules/Mol)
                                   68.36631 (Kcal/Mol)
 Warning -- explicit consideration of   8 degrees of freedom as
           vibrations may cause significant error
 Vibrational temperatures:     93.98   327.29   348.73   365.03   462.23
          (Kelvin)            546.27   735.38   855.23   929.87  1116.07
                             1169.09  1229.22  1344.54  1503.84  1590.44
                             1687.52  1705.65  1802.47  1909.04  1956.36
                             2012.03  2086.56  2151.36  2169.24  2361.47
                             2694.48  4405.39  4436.40  4519.12  4530.59
                             5078.94  5208.25  5474.45

 Zero-point correction=                           0.108949 (Hartree/Particle)
 Thermal correction to Energy=                    0.115744
 Thermal correction to Enthalpy=                  0.116688
 Thermal correction to Gibbs Free Energy=         0.078439
 Sum of electronic and zero-point Energies=           -323.636756
 Sum of electronic and thermal Energies=              -323.629960
 Sum of electronic and thermal Enthalpies=            -323.629016
 Sum of electronic and thermal Free Energies=         -323.667265

                     E (Thermal)             CV                S
                      KCal/Mol        Cal/Mol-Kelvin    Cal/Mol-Kelvin
 Total                   72.631             23.839             80.502
 Electronic               0.000              0.000              0.000
 Translational            0.889              2.981             39.372
 Rotational               0.889              2.981             26.553
 Vibrational             70.853             17.877             14.576
 Vibration     1          0.597              1.971              4.290
 Vibration     2          0.651              1.799              1.899
 Vibration     3          0.659              1.775              1.785
 Vibration     4          0.665              1.757              1.705
 Vibration     5          0.707              1.633              1.304
 Vibration     6          0.750              1.513              1.040
 Vibration     7          0.866              1.225              0.631
 Vibration     8          0.952              1.044              0.459

 Optimization completed.
    -- Stationary point found.
 Normal termination of Gaussian 16 at Tue Feb 13 13:56:20 2024.
