 Gaussian 16, Revision C.01,
 Gaussian 16:  ES64L-G16RevC.01  3-Jul-2019

 --------------------------
 #p m062X def2TZVP opt freq
 --------------------------

 ------------
 5950 alanine
 ------------
 Symbolic Z-matrix:
 Charge =  0 Multiplicity = 1

 SCF Done:  E(RM062X) =  -323.738370402     A.U. after   14 cycles
 SCF Done:  E(RM062X) =  -323.743275134     A.U. after   12 cycles
 SCF Done:  E(RM062X) =  -323.743072426     A.U. after   13 cycles
 SCF Done:  E(RM062X) =  -323.744962795     A.U. after   13 cycles
 SCF Done:  E(RM062X) =  -323.745517845     A.U. after   13 cycles
 SCF Done:  E(RM062X) =  -323.745649218     A.U. after   11 cycles
 SCF Done:  E(RM062X) =  -323.745684600     A.U. after   10 cycles
 SCF Done:  E(RM062X) =  -323.745695096     A.U. after   10 cycles
 SCF Done:  E(RM062X) =  -323.745699872     A.U. after   10 cycles
 SCF Done:  E(RM062X) =  -323.745703779     A.U. after   10 cycles
 SCF Done:  E(RM062X) =  -323.745704292     A.U. after    8 cycles
 Optimization completed.
    -- Stationary point found.
 Normal termination of Gaussian 16 at Tue Feb 13 18:36:01 2024.

 --------------------------------------------------------------------
 #P Geom=AllCheck Guess=TCheck SCRF=Check GenChk RM062X/def2TZVP Freq
 --------------------------------------------------------------------

 Structure from the checkpoint file:  "/scratch/16209.qtcovimaster/Gau-163330.chk"
 ------------
 5950 alanine
 ------------
 Charge =  0 Multiplicity = 1

                         Standard orientation:
 ---------------------------------------------------------------------
 Center     Atomic      Atomic             Coordinates (Angstroms)
 Number     Number       Type             X           Y           Z
 ---------------------------------------------------------------------
      1          8           0        1.642636    0.747624   -0.449496
      2          8           0        1.088150   -1.119940    0.642795
      3          7           0       -1.425465   -1.067097   -0.421316
      4          6           0       -0.653167    0.160331   -0.419104
      5          6           0       -1.163234    1.244128    0.540653
      6          6           0        0.766118   -0.175888   -0.021858
      7          1           0       -0.619105    0.573678   -1.429718
      8          1           0       -0.548707    2.143204    0.489563
      9          1           0       -2.186439    1.511313    0.274823
     10          1           0       -1.159286    0.866608    1.564711
     11          1           0       -2.415030   -0.869122   -0.349099
     12          1           0       -1.152219   -1.643767    0.367031
     13          1           0        2.514445    0.494871   -0.112642
 ---------------------------------------------------------------------

 SCF Done:  E(RM062X) =  -323.745704292     A.U. after    1 cycles

 The electronic state is 1-A.
 Alpha  occ. eigenvalues --  -19.68087 -19.62611 -14.72953 -10.67975 -10.58577
 Alpha  occ. eigenvalues --  -10.54104  -1.24844  -1.15262  -1.00586  -0.85624
 Alpha  occ. eigenvalues --   -0.76897  -0.67749  -0.61430  -0.58928  -0.55619
 Alpha  occ. eigenvalues --   -0.52658  -0.51739  -0.49157  -0.47951  -0.45022
 Alpha  occ. eigenvalues --   -0.43469  -0.40764  -0.36409  -0.31519
 Alpha virt. eigenvalues --    0.04412   0.05830   0.07168   0.11064   0.11357
 Alpha virt. eigenvalues --    0.12967   0.14933   0.16522   0.17762   0.19359
 Alpha virt. eigenvalues --    0.21270   0.23708   0.25646   0.27383   0.28687

 Mulliken charges:
               1
     1  O   -0.411190
     2  O   -0.332950
     3  N   -0.542839
     4  C   -0.025034
     5  C   -0.444079
     6  C    0.354521
     7  H    0.144391
     8  H    0.151949
     9  H    0.146448
    10  H    0.146981
    11  H    0.224192
    12  H    0.251125
    13  H    0.336485
 Sum of Mulliken charges =  -0.00000

 Dipole moment (field-independent basis, Debye):
    X=             -0.5831    Y=              2.0609    Z=              0.4023  Tot=              2.1792
 Quadrupole moment (field-independent basis, Debye-Ang):
   XX=            -28.9749   YY=            -40.3998   ZZ=            -38.5271
   XY=              1.2519   XZ=             -1.5509   YZ=             -0.2621

  Exact polarizability:      55.009       0.282      52.221       0.420      -2.639      42.789
 Approx polarizability:      59.345       0.240      61.849       1.124      -6.602      53.545

                      1                      2                      3
                      A                      A                      A
 Frequencies --     65.3162               227.4694               242.3754
 Red. masses --      5.1156                 1.1566                 1.9269
 Frc consts  --      0.0129                 0.0353                 0.0667
 IR Inten    --      1.5348                43.1198                 6.9681

                      4                      5                      6
                      A                      A                      A
 Frequencies --    253.7129               321.2667               379.6710
 Red. masses --      1.3094                 3.5018                 2.8381
 Frc consts  --      0.0497                 0.2129                 0.2410
 IR Inten    --      1.2394                 0.3923                 2.2918

                      7                      8                      9
                      A                      A                      A
 Frequencies --    511.1160               594.4169               646.2978
 Red. masses --      3.5745                 1.2051                 3.5203
 Frc consts  --      0.5502                 0.2509                 0.8664
 IR Inten    --     23.9721                83.1964                24.9633

                     10                     11                     12
                      A                      A                      A
 Frequencies --    775.7098               812.5580               854.3697
 Red. masses --      4.3089                 2.4068                 1.3579
 Frc consts  --      1.5276                 0.9363                 0.5840
 IR Inten    --     32.4678                52.5505               147.1533

                     13                     14                     15
                      A                      A                      A
 Frequencies --    934.5044              1045.2265              1105.4195
 Red. masses --      1.7983                 1.4866                 2.7377
 Frc consts  --      0.9253                 0.9569                 1.9710
 IR Inten    --      3.1401                 5.2644                11.8218

                     16                     17                     18
                      A                      A                      A
 Frequencies --   1172.8900              1185.4877              1252.7728
 Red. masses --      1.6375                 1.8918                 1.9047
 Frc consts  --      1.3273                 1.5664                 1.7613
 IR Inten    --    179.7830                86.1272                27.1096

                     19                     20                     21
                      A                      A                      A
 Frequencies --   1326.8528              1359.7385              1398.4342
 Red. masses --      1.6309                 1.3140                 1.2474
 Frc consts  --      1.6917                 1.4314                 1.4373
 IR Inten    --     13.4624                18.7412                 4.3255

                     22                     23                     24
                      A                      A                      A
 Frequencies --   1450.2323              1495.2695              1507.6973
 Red. masses --      1.7670                 1.0495                 1.1880
 Frc consts  --      2.1896                 1.3825                 1.5911
 IR Inten    --     32.1036                 8.0605                21.1082

                     25                     26                     27
                      A                      A                      A
 Frequencies --   1641.3060              1872.7538              3061.9004
 Red. masses --      1.1008                 9.5377                 1.0346
 Frc consts  --      1.7473                19.7086                 5.7149
 IR Inten    --     63.5934               306.8395                12.1757

                     28                     29                     30
                      A                      A                      A
 Frequencies --   3083.4607              3140.9454              3148.9053
 Red. masses --      1.0843                 1.1034                 1.1030
 Frc consts  --      6.0738                 6.4137                 6.4436
 IR Inten    --     11.4993                15.1841                14.5166

                     31                     32                     33
                      A                      A                      A
 Frequencies --   3530.0336              3619.9068              3804.9351
 Red. masses --      1.0494                 1.0935                 1.0643
 Frc consts  --      7.7047                 8.4427                 9.0785
 IR Inten    --      8.0038                14.3319                92.1744

 - Thermochemistry -
 -------------------
 Temperature   298.150 Kelvin.  Pressure   1.00000 Atm.
 Atom     1 has atomic number  8 and mass  15.99491

 Molecular mass:    89.04768 amu.
 Principal axes and moments of inertia in atomic units:
                           1         2         3
     Eigenvalues --   353.07180 578.77891 767.72779
           X            0.99982  -0.01167  -0.01485
           Y            0.01214   0.99943   0.03146
           Z            0.01447  -0.03164   0.99939
 This molecule is an asymmetric top.
 Rotational symmetry number  1.
 Rotational temperatures (Kelvin)      0.24532     0.14965     0.11282
 Rotational constants (GHZ):           5.11154     3.11819     2.35076
 Zero-point vibrational energy     286044.8 (Joules/Mol)
                                   68.36634 (Kcal/Mol)
 Warning -- explicit consideration of   8 degrees of freedom as
           vibrations may cause significant error
 Vibrational temperatures:     93.98   327.28   348.72   365.04   462.23
          (Kelvin)            546.26   735.38   855.23   929.88  1116.07
                             1169.09  1229.25  1344.54  1503.85  1590.45
                             1687.53  1705.65  1802.46  1909.05  1956.36
                             2012.03  2086.56  2151.36  2169.24  2361.47
                             2694.48  4405.39  4436.41  4519.12  4530.57
                             5078.93  5208.24  5474.45

 Zero-point correction=                           0.108949 (Hartree/Particle)
 Thermal correction to Energy=                    0.115744
 Thermal correction to Enthalpy=                  0.116688
 Thermal correction to Gibbs Free Energy=         0.078439
 Sum of electronic and zero-point Energies=           -323.636756
 Sum of electronic and thermal Energies=              -323.629960
 Sum of electronic and thermal Enthalpies=            -323.629016
 Sum of electronic and thermal Free Energies=         -323.667265

                     E (Thermal)             CV                S
                      KCal/Mol        Cal/Mol-Kelvin    Cal/Mol-Kelvin
 Total                   72.631             23.839             80.502
 Electronic               0.000              0.000              0.000
 Translational            0.889              2.981             39.372
 Rotational               0.889              2.981             26.553
 Vibrational             70.853             17.877             14.577
 Vibration     1          0.597              1.971              4.290
 Vibration     2          0.651              1.799              1.899
 Vibration     3          0.659              1.775              1.785
 Vibration     4          0.665              1.757              1.705
 Vibration     5          0.707              1.633              1.304
 Vibration     6          0.750              1.513              1.040
 Vibration     7          0.866              1.225              0.631
 Vibration     8          0.952              1.044              0.459

 Optimization completed.
    -- Stationary point found.
 Normal termination of Gaussian 16 at Tue Feb 13 18:38:15 2024.
