 Gaussian 16, Revision A.03,
 Gaussian 16:  ES64L-G16RevA.03 25-Dec-2016

 --------------------------
 #p m062X def2TZVP opt freq
 --------------------------

 ------------
 5950 alanine
 ------------
 Symbolic Z-matrix:
 Charge =  0 Multiplicity = 1

 SCF Done:  E(RM062X) =  -323.734877954     A.U. after   14 cycles
 SCF Done:  E(RM062X) =  -323.741447307     A.U. after   13 cycles
 SCF Done:  E(RM062X) =  -323.741962214     A.U. after   12 cycles
 SCF Done:  E(RM062X) =  -323.742274550     A.U. after   12 cycles
 SCF Done:  E(RM062X) =  -323.743027801     A.U. after   12 cycles
 SCF Done:  E(RM062X) =  -323.743505456     A.U. after   13 cycles
 SCF Done:  E(RM062X) =  -323.743670705     A.U. after   13 cycles
 SCF Done:  E(RM062X) =  -323.743686089     A.U. after   13 cycles
 SCF Done:  E(RM062X) =  -323.743755516     A.U. after   12 cycles
 SCF Done:  E(RM062X) =  -323.743774163     A.U. after   12 cycles
 SCF Done:  E(RM062X) =  -323.743788605     A.U. after   11 cycles
 SCF Done:  E(RM062X) =  -323.743788807     A.U. after    8 cycles
 SCF Done:  E(RM062X) =  -323.743789065     A.U. after    8 cycles
 SCF Done:  E(RM062X) =  -323.743789105     A.U. after    8 cycles
 Optimization completed.
    -- Stationary point found.
 Normal termination of Gaussian 16 at Tue Feb 13 19:02:18 2024.

 --------------------------------------------------------------------
 #P Geom=AllCheck Guess=TCheck SCRF=Check GenChk RM062X/def2TZVP Freq
 --------------------------------------------------------------------

 Structure from the checkpoint file:  "/scratch/Gau-26320.chk"
 ------------
 5950 alanine
 ------------
 Charge =  0 Multiplicity = 1

                         Standard orientation:
 ---------------------------------------------------------------------
 Center     Atomic      Atomic             Coordinates (Angstroms)
 Number     Number       Type             X           Y           Z
 ---------------------------------------------------------------------
      1          8           0       -1.072517    0.910094    0.765742
      2          8           0       -1.675361   -0.752121   -0.598170
      3          7           0        1.271336    1.131188   -0.521347
      4          6           0        0.662078   -0.187027   -0.426125
      5          6           0        1.269580   -1.109204    0.637830
      6          6           0       -0.817664   -0.054107   -0.139110
      7          1           0        0.726847   -0.670462   -1.400841
      8          1           0        0.772620   -2.080083    0.650342
      9          1           0        2.327404   -1.264742    0.423446
     10          1           0        1.180329   -0.653988    1.625713
     11          1           0        2.264607    1.041500   -0.697868
     12          1           0        1.155570    1.635250    0.350639
     13          1           0       -2.027671    0.912460    0.921849
 ---------------------------------------------------------------------

 SCF Done:  E(RM062X) =  -323.743789105     A.U. after    1 cycles

 The electronic state is 1-A.
 Alpha  occ. eigenvalues --  -19.67873 -19.62150 -14.73631 -10.67683 -10.58621
 Alpha  occ. eigenvalues --  -10.54015  -1.24517  -1.14837  -1.01023  -0.85500
 Alpha  occ. eigenvalues --   -0.76686  -0.69002  -0.60062  -0.58002  -0.55502
 Alpha  occ. eigenvalues --   -0.54490  -0.50647  -0.49338  -0.48214  -0.45199
 Alpha  occ. eigenvalues --   -0.43279  -0.40390  -0.36261  -0.31836
 Alpha virt. eigenvalues --    0.04782   0.05100   0.07696   0.10682   0.10832
 Alpha virt. eigenvalues --    0.13350   0.14968   0.16050   0.17506   0.18865
 Alpha virt. eigenvalues --    0.21042   0.24786   0.26539   0.27533   0.27708

 Mulliken charges:
               1
     1  O   -0.424383
     2  O   -0.318214
     3  N   -0.534997
     4  C   -0.046392
     5  C   -0.433002
     6  C    0.354682
     7  H    0.148945
     8  H    0.154486
     9  H    0.141459
    10  H    0.146732
    11  H    0.226970
    12  H    0.244727
    13  H    0.338988
 Sum of Mulliken charges =  -0.00000

 Dipole moment (field-independent basis, Debye):
    X=              1.7958    Y=              0.3315    Z=              1.8144  Tot=              2.5743
 Quadrupole moment (field-independent basis, Debye-Ang):
   XX=            -32.4826   YY=            -38.5286   ZZ=            -37.4245
   XY=             -3.8750   XZ=             -3.6517   YZ=              1.4231

  Exact polarizability:  55.208   1.071  50.099   0.248   2.583  44.706
 Approx polarizability:  60.697   3.301  58.739   0.887   5.895  54.639

                      1                      2                      3
                      A                      A                      A
 Frequencies --     50.3203               238.0983               243.4786
 Red. masses --      5.6189                 2.8559                 1.2319
 Frc consts  --      0.0084                 0.0954                 0.0430
 IR Inten    --      1.1348                 0.3881                 3.6567

                      4                      5                      6
                      A                      A                      A
 Frequencies --    257.5220               312.1917               368.6092
 Red. masses --      1.0506                 2.8828                 2.8737
 Frc consts  --      0.0410                 0.1655                 0.2301
 IR Inten    --     35.2684                 9.8316                 5.5872

                      7                      8                      9
                      A                      A                      A
 Frequencies --    538.9194               583.2360               615.5747
 Red. masses --      4.0945                 1.2605                 2.4479
 Frc consts  --      0.7007                 0.2526                 0.5465
 IR Inten    --     10.0526                81.0885                52.1611

                     10                     11                     12
                      A                      A                      A
 Frequencies --    786.5645               809.7866               860.6555
 Red. masses --      4.6999                 2.8013                 1.4248
 Frc consts  --      1.7132                 1.0823                 0.6218
 IR Inten    --     54.9132                10.0513               147.5835

                     13                     14                     15
                      A                      A                      A
 Frequencies --    930.6115              1032.7554              1104.2824
 Red. masses --      1.7274                 1.4947                 2.3331
 Frc consts  --      0.8814                 0.9393                 1.6763
 IR Inten    --      5.6014                23.9506                31.3131

                     16                     17                     18
                      A                      A                      A
 Frequencies --   1120.8243              1206.3886              1255.2839
 Red. masses --      1.8246                 1.9022                 1.7193
 Frc consts  --      1.3505                 1.6311                 1.5962
 IR Inten    --     83.9580               103.0673                35.6709

                     19                     20                     21
                      A                      A                      A
 Frequencies --   1343.2088              1369.0498              1399.0974
 Red. masses --      1.3273                 1.8862                 1.2504
 Frc consts  --      1.4109                 2.0830                 1.4421
 IR Inten    --      5.4111                48.8391                 6.0162

                     22                     23                     24
                      A                      A                      A
 Frequencies --   1426.8748              1492.8446              1502.4210
 Red. masses --      1.7224                 1.0492                 1.1111
 Frc consts  --      2.0661                 1.3777                 1.4777
 IR Inten    --     37.1258                 2.7099                17.0720

                     25                     26                     27
                      A                      A                      A
 Frequencies --   1647.8120              1879.7422              3061.7763
 Red. masses --      1.0966                10.1541                 1.0340
 Frc consts  --      1.7543                21.1392                 5.7112
 IR Inten    --     42.9565               341.8679                11.7112

                     28                     29                     30
                      A                      A                      A
 Frequencies --   3113.8187              3143.8525              3145.7242
 Red. masses --      1.0874                 1.1025                 1.1027
 Frc consts  --      6.2122                 6.4203                 6.4289
 IR Inten    --      3.1220                16.0696                15.4443

                     31                     32                     33
                      A                      A                      A
 Frequencies --   3525.7796              3611.4704              3807.0178
 Red. masses --      1.0491                 1.0937                 1.0645
 Frc consts  --      7.6841                 8.4046                 9.0898
 IR Inten    --      3.2178                 8.7765                94.6062

 - Thermochemistry -
 -------------------
 Temperature   298.150 Kelvin.  Pressure   1.00000 Atm.
 Atom     1 has atomic number  8 and mass  15.99491

 Molecular mass:    89.04768 amu.
 Principal axes and moments of inertia in atomic units:
                           1         2         3
     Eigenvalues --   355.71871 606.22503 727.47857
           X            0.99876  -0.04970  -0.00367
           Y            0.04952   0.99803  -0.03860
           Z            0.00558   0.03837   0.99925
 This molecule is an asymmetric top.
 Rotational symmetry number  1.
 Rotational temperatures (Kelvin)      0.24349     0.14287     0.11906
 Rotational constants (GHZ):           5.07351     2.97702     2.48082
 Zero-point vibrational energy     285821.3 (Joules/Mol)
                                   68.31294 (Kcal/Mol)
 Warning -- explicit consideration of   9 degrees of freedom as
           vibrations may cause significant error
 Vibrational temperatures:     72.40   342.57   350.31   370.52   449.17
          (Kelvin)            530.35   775.38   839.15   885.67  1131.69
                             1165.10  1238.29  1338.94  1485.90  1588.82
                             1612.62  1735.72  1806.07  1932.58  1969.76
                             2012.99  2052.95  2147.87  2161.65  2370.83
                             2704.53  4405.21  4480.09  4523.30  4526.00
                             5072.81  5196.10  5477.45

 Zero-point correction=                           0.108864 (Hartree/Particle)
 Thermal correction to Energy=                    0.115694
 Thermal correction to Enthalpy=                  0.116638
 Thermal correction to Gibbs Free Energy=         0.078153
 Sum of electronic and zero-point Energies=           -323.634926
 Sum of electronic and thermal Energies=              -323.628096
 Sum of electronic and thermal Enthalpies=            -323.627151
 Sum of electronic and thermal Free Energies=         -323.665636

                     E (Thermal)             CV                S
                      KCal/Mol        Cal/Mol-Kelvin    Cal/Mol-Kelvin
 Total                   72.599             23.903             80.998
 Electronic               0.000              0.000              0.000
 Translational            0.889              2.981             39.372
 Rotational               0.889              2.981             26.553
 Vibrational             70.821             17.941             15.073
 Vibration     1          0.595              1.977              4.805
 Vibration     2          0.656              1.782              1.817
 Vibration     3          0.659              1.774              1.777
 Vibration     4          0.667              1.750              1.679
 Vibration     5          0.701              1.650              1.351
 Vibration     6          0.741              1.537              1.086
 Vibration     7          0.894              1.164              0.568
 Vibration     8          0.940              1.068              0.479
 Vibration     9          0.975              0.999              0.424

 Optimization completed.
    -- Stationary point found.
 Normal termination of Gaussian 16 at Tue Feb 13 19:05:37 2024.
