 Gaussian 16, Revision C.01,
 Gaussian 16:  ES64L-G16RevC.01  3-Jul-2019

 --------------------------
 #p m062X def2TZVP opt freq
 --------------------------

 ------------
 5950 alanine
 ------------
 Symbolic Z-matrix:
 Charge =  0 Multiplicity = 1

 SCF Done:  E(RM062X) =  -323.737004331     A.U. after   14 cycles
 SCF Done:  E(RM062X) =  -323.741361996     A.U. after   12 cycles
 SCF Done:  E(RM062X) =  -323.741089313     A.U. after   12 cycles
 SCF Done:  E(RM062X) =  -323.741744176     A.U. after   12 cycles
 SCF Done:  E(RM062X) =  -323.741954407     A.U. after   12 cycles
 SCF Done:  E(RM062X) =  -323.742550956     A.U. after   14 cycles
 SCF Done:  E(RM062X) =  -323.742638527     A.U. after   11 cycles
 SCF Done:  E(RM062X) =  -323.742444025     A.U. after   12 cycles
 SCF Done:  E(RM062X) =  -323.742855089     A.U. after   14 cycles
 SCF Done:  E(RM062X) =  -323.743024618     A.U. after   11 cycles
 SCF Done:  E(RM062X) =  -323.744869812     A.U. after   13 cycles
 SCF Done:  E(RM062X) =  -323.744949185     A.U. after   13 cycles
 SCF Done:  E(RM062X) =  -323.743424012     A.U. after   13 cycles
 SCF Done:  E(RM062X) =  -323.745623056     A.U. after   11 cycles
 SCF Done:  E(RM062X) =  -323.745690425     A.U. after   10 cycles
 SCF Done:  E(RM062X) =  -323.745701515     A.U. after   11 cycles
 SCF Done:  E(RM062X) =  -323.745703111     A.U. after    9 cycles
 SCF Done:  E(RM062X) =  -323.745704112     A.U. after    8 cycles
 SCF Done:  E(RM062X) =  -323.745704277     A.U. after    8 cycles
 Optimization completed.
    -- Stationary point found.
 Normal termination of Gaussian 16 at Tue Feb 13 18:45:56 2024.

 --------------------------------------------------------------------
 #P Geom=AllCheck Guess=TCheck SCRF=Check GenChk RM062X/def2TZVP Freq
 --------------------------------------------------------------------

 Structure from the checkpoint file:  "/scratch/16209.qtcovimaster/Gau-165823.chk"
 ------------
 5950 alanine
 ------------
 Charge =  0 Multiplicity = 1

                         Standard orientation:
 ---------------------------------------------------------------------
 Center     Atomic      Atomic             Coordinates (Angstroms)
 Number     Number       Type             X           Y           Z
 ---------------------------------------------------------------------
      1          8           0        1.642487    0.748026   -0.449165
      2          8           0        1.088539   -1.120248    0.642259
      3          7           0       -1.425586   -1.067199   -0.421030
      4          6           0       -0.653154    0.160212   -0.418956
      5          6           0       -1.163373    1.244207    0.540438
      6          6           0        0.766197   -0.175890   -0.021794
      7          1           0       -0.618990    0.573439   -1.429635
      8          1           0       -0.548868    2.143284    0.489220
      9          1           0       -2.186537    1.511335    0.274359
     10          1           0       -1.159593    0.867069    1.564645
     11          1           0       -2.415179   -0.869334   -0.348818
     12          1           0       -1.152377   -1.644058    0.367203
     13          1           0        2.514414    0.495266   -0.112651
 ---------------------------------------------------------------------

 SCF Done:  E(RM062X) =  -323.745704277     A.U. after    1 cycles

 The electronic state is 1-A.
 Alpha  occ. eigenvalues --  -19.68086 -19.62612 -14.72953 -10.67975 -10.58578
 Alpha  occ. eigenvalues --  -10.54104  -1.24843  -1.15262  -1.00583  -0.85625
 Alpha  occ. eigenvalues --   -0.76897  -0.67748  -0.61428  -0.58928  -0.55617
 Alpha  occ. eigenvalues --   -0.52659  -0.51739  -0.49158  -0.47950  -0.45024
 Alpha  occ. eigenvalues --   -0.43468  -0.40764  -0.36408  -0.31518
 Alpha virt. eigenvalues --    0.04411   0.05831   0.07168   0.11063   0.11357
 Alpha virt. eigenvalues --    0.12965   0.14933   0.16522   0.17761   0.19361
 Alpha virt. eigenvalues --    0.21270   0.23707   0.25647   0.27382   0.28688

 Mulliken charges:
               1
     1  O   -0.411217
     2  O   -0.332897
     3  N   -0.542908
     4  C   -0.024998
     5  C   -0.444091
     6  C    0.354507
     7  H    0.144404
     8  H    0.151956
     9  H    0.146451
    10  H    0.146968
    11  H    0.224215
    12  H    0.251126
    13  H    0.336484
 Sum of Mulliken charges =   0.00000

 Dipole moment (field-independent basis, Debye):
    X=             -0.5835    Y=              2.0608    Z=              0.4026  Tot=              2.1793
 Quadrupole moment (field-independent basis, Debye-Ang):
   XX=            -28.9755   YY=            -40.4013   ZZ=            -38.5241
   XY=              1.2545   XZ=             -1.5516   YZ=             -0.2633

  Exact polarizability:      55.010       0.282      52.227       0.420      -2.640      42.785
 Approx polarizability:      59.345       0.239      61.855       1.124      -6.601      53.539

                      1                      2                      3
                      A                      A                      A
 Frequencies --     65.3686               227.3179               242.3366
 Red. masses --      5.1160                 1.1550                 1.9286
 Frc consts  --      0.0129                 0.0352                 0.0667
 IR Inten    --      1.5306                43.2057                 6.8653

                      4                      5                      6
                      A                      A                      A
 Frequencies --    253.6922               321.2557               379.7205
 Red. masses --      1.3108                 3.5004                 2.8382
 Frc consts  --      0.0497                 0.2128                 0.2411
 IR Inten    --      1.2289                 0.3973                 2.2907

                      7                      8                      9
                      A                      A                      A
 Frequencies --    511.0948               594.2926               646.2277
 Red. masses --      3.5744                 1.2051                 3.5202
 Frc consts  --      0.5501                 0.2508                 0.8661
 IR Inten    --     23.9540                83.2000                24.9724

                     10                     11                     12
                      A                      A                      A
 Frequencies --    775.6319               812.5061               854.1479
 Red. masses --      4.3089                 2.4055                 1.3580
 Frc consts  --      1.5273                 0.9356                 0.5838
 IR Inten    --     32.4153                52.8351               146.9585

                     13                     14                     15
                      A                      A                      A
 Frequencies --    934.5270              1045.2107              1105.4281
 Red. masses --      1.7985                 1.4866                 2.7380
 Frc consts  --      0.9254                 0.9569                 1.9712
 IR Inten    --      3.1170                 5.2491                11.7936

                     16                     17                     18
                      A                      A                      A
 Frequencies --   1172.8262              1185.4166              1252.6639
 Red. masses --      1.6467                 1.8811                 1.9044
 Frc consts  --      1.3345                 1.5574                 1.7606
 IR Inten    --    181.5258                84.4605                27.1523

                     19                     20                     21
                      A                      A                      A
 Frequencies --   1326.8173              1359.7151              1398.4612
 Red. masses --      1.6314                 1.3136                 1.2475
 Frc consts  --      1.6922                 1.4309                 1.4374
 IR Inten    --     13.4928                18.6783                 4.3177

                     22                     23                     24
                      A                      A                      A
 Frequencies --   1450.1768              1495.2625              1507.6949
 Red. masses --      1.7673                 1.0495                 1.1876
 Frc consts  --      2.1898                 1.3825                 1.5905
 IR Inten    --     32.0694                 8.0590                21.0643

                     25                     26                     27
                      A                      A                      A
 Frequencies --   1641.3472              1872.7793              3061.8841
 Red. masses --      1.1009                 9.5390                 1.0346
 Frc consts  --      1.7474                19.7119                 5.7149
 IR Inten    --     63.5786               306.8978                12.1775

                     28                     29                     30
                      A                      A                      A
 Frequencies --   3083.2941              3140.8738              3148.9099
 Red. masses --      1.0842                 1.1034                 1.1030
 Frc consts  --      6.0731                 6.4134                 6.4436
 IR Inten    --     11.5125                15.1871                14.5148

                     31                     32                     33
                      A                      A                      A
 Frequencies --   3529.9797              3619.8365              3805.0717
 Red. masses --      1.0494                 1.0935                 1.0643
 Frc consts  --      7.7045                 8.4424                 9.0792
 IR Inten    --      8.0076                14.3261                92.1931

 - Thermochemistry -
 -------------------
 Temperature   298.150 Kelvin.  Pressure   1.00000 Atm.
 Atom     1 has atomic number  8 and mass  15.99491

 Molecular mass:    89.04768 amu.
 Principal axes and moments of inertia in atomic units:
                           1         2         3
     Eigenvalues --   353.08490 578.75484 767.89164
           X            0.99982  -0.01166  -0.01485
           Y            0.01212   0.99943   0.03141
           Z            0.01447  -0.03159   0.99940
 This molecule is an asymmetric top.
 Rotational symmetry number  1.
 Rotational temperatures (Kelvin)      0.24531     0.14966     0.11279
 Rotational constants (GHZ):           5.11135     3.11832     2.35026
 Zero-point vibrational energy     286037.7 (Joules/Mol)
                                   68.36465 (Kcal/Mol)
 Warning -- explicit consideration of   8 degrees of freedom as
           vibrations may cause significant error
 Vibrational temperatures:     94.05   327.06   348.67   365.01   462.22
          (Kelvin)            546.33   735.35   855.05   929.78  1115.96
                             1169.02  1228.93  1344.58  1503.83  1590.46
                             1687.44  1705.55  1802.30  1908.99  1956.33
                             2012.07  2086.48  2151.35  2169.24  2361.53
                             2694.51  4405.37  4436.17  4519.02  4530.58
                             5078.85  5208.14  5474.65

 Zero-point correction=                           0.108946 (Hartree/Particle)
 Thermal correction to Energy=                    0.115742
 Thermal correction to Enthalpy=                  0.116686
 Thermal correction to Gibbs Free Energy=         0.078437
 Sum of electronic and zero-point Energies=           -323.636758
 Sum of electronic and thermal Energies=              -323.629962
 Sum of electronic and thermal Enthalpies=            -323.629018
 Sum of electronic and thermal Free Energies=         -323.667268

                     E (Thermal)             CV                S
                      KCal/Mol        Cal/Mol-Kelvin    Cal/Mol-Kelvin
 Total                   72.629             23.840             80.503
 Electronic               0.000              0.000              0.000
 Translational            0.889              2.981             39.372
 Rotational               0.889              2.981             26.553
 Vibrational             70.852             17.878             14.577
 Vibration     1          0.597              1.971              4.288
 Vibration     2          0.651              1.799              1.900
 Vibration     3          0.659              1.775              1.786
 Vibration     4          0.665              1.757              1.705
 Vibration     5          0.707              1.633              1.304
 Vibration     6          0.750              1.513              1.040
 Vibration     7          0.866              1.225              0.631
 Vibration     8          0.952              1.044              0.460

 Optimization completed.
    -- Stationary point found.
 Normal termination of Gaussian 16 at Tue Feb 13 18:47:48 2024.
