 Gaussian 16, Revision C.01,
 Gaussian 16:  ES64L-G16RevC.01  3-Jul-2019

 --------------------------
 #p m062X def2TZVP opt freq
 --------------------------

 ------------
 5950 alanine
 ------------
 Symbolic Z-matrix:
 Charge =  0 Multiplicity = 1

 SCF Done:  E(RM062X) =  -323.739332204     A.U. after   14 cycles
 SCF Done:  E(RM062X) =  -323.743594673     A.U. after   12 cycles
 SCF Done:  E(RM062X) =  -323.743259013     A.U. after   12 cycles
 SCF Done:  E(RM062X) =  -323.744129265     A.U. after   12 cycles
 SCF Done:  E(RM062X) =  -323.744535461     A.U. after   13 cycles
 SCF Done:  E(RM062X) =  -323.745178019     A.U. after   13 cycles
 SCF Done:  E(RM062X) =  -323.745453547     A.U. after   11 cycles
 SCF Done:  E(RM062X) =  -323.745670602     A.U. after   12 cycles
 SCF Done:  E(RM062X) =  -323.745697260     A.U. after   11 cycles
 SCF Done:  E(RM062X) =  -323.745701898     A.U. after    9 cycles
 SCF Done:  E(RM062X) =  -323.745703630     A.U. after    9 cycles
 SCF Done:  E(RM062X) =  -323.745704135     A.U. after    8 cycles
 SCF Done:  E(RM062X) =  -323.745704269     A.U. after    7 cycles
 Optimization completed.
    -- Stationary point found.
 Normal termination of Gaussian 16 at Tue Feb 13 18:24:53 2024.

 --------------------------------------------------------------------
 #P Geom=AllCheck Guess=TCheck SCRF=Check GenChk RM062X/def2TZVP Freq
 --------------------------------------------------------------------

 Structure from the checkpoint file:  "/scratch/16209.qtcovimaster/Gau-157702.chk"
 ------------
 5950 alanine
 ------------
 Charge =  0 Multiplicity = 1

                         Standard orientation:
 ---------------------------------------------------------------------
 Center     Atomic      Atomic             Coordinates (Angstroms)
 Number     Number       Type             X           Y           Z
 ---------------------------------------------------------------------
      1          8           0        1.642770    0.747311   -0.449425
      2          8           0        1.087766   -1.120378    0.642551
      3          7           0       -1.425943   -1.066823   -0.420958
      4          6           0       -0.653197    0.160396   -0.419132
      5          6           0       -1.162383    1.244578    0.540659
      6          6           0        0.766073   -0.176198   -0.022095
      7          1           0       -0.619374    0.573533   -1.429833
      8          1           0       -0.547438    2.143355    0.489116
      9          1           0       -2.185585    1.512218    0.275269
     10          1           0       -1.158139    0.867253    1.564788
     11          1           0       -2.415553   -0.868400   -0.350336
     12          1           0       -1.153995   -1.642702    0.368424
     13          1           0        2.514440    0.494382   -0.112326
 ---------------------------------------------------------------------

 SCF Done:  E(RM062X) =  -323.745704269     A.U. after    1 cycles

 The electronic state is 1-A.
 Alpha  occ. eigenvalues --  -19.68087 -19.62610 -14.72954 -10.67973 -10.58578
 Alpha  occ. eigenvalues --  -10.54103  -1.24843  -1.15261  -1.00584  -0.85625
 Alpha  occ. eigenvalues --   -0.76894  -0.67748  -0.61431  -0.58927  -0.55615
 Alpha  occ. eigenvalues --   -0.52660  -0.51735  -0.49153  -0.47956  -0.45023
 Alpha  occ. eigenvalues --   -0.43468  -0.40762  -0.36407  -0.31520
 Alpha virt. eigenvalues --    0.04414   0.05829   0.07168   0.11062   0.11355
 Alpha virt. eigenvalues --    0.12966   0.14933   0.16525   0.17767   0.19352
 Alpha virt. eigenvalues --    0.21272   0.23706   0.25648   0.27381   0.28687

 Mulliken charges:
               1
     1  O   -0.411202
     2  O   -0.332920
     3  N   -0.542772
     4  C   -0.025243
     5  C   -0.443971
     6  C    0.354583
     7  H    0.144414
     8  H    0.151960
     9  H    0.146414
    10  H    0.146960
    11  H    0.224205
    12  H    0.251086
    13  H    0.336486
 Sum of Mulliken charges =   0.00000

 Dipole moment (field-independent basis, Debye):
    X=             -0.5842    Y=              2.0624    Z=              0.4013  Tot=              2.1808
 Quadrupole moment (field-independent basis, Debye-Ang):
   XX=            -28.9712   YY=            -40.4072   ZZ=            -38.5207
   XY=              1.2512   XZ=             -1.5451   YZ=             -0.2623

  Exact polarizability:      55.009       0.284      52.223       0.422      -2.640      42.791
 Approx polarizability:      59.345       0.243      61.851       1.125      -6.604      53.550

                      1                      2                      3
                      A                      A                      A
 Frequencies --     65.6108               228.4375               242.5717
 Red. masses --      5.1267                 1.1718                 1.8743
 Frc consts  --      0.0130                 0.0360                 0.0650
 IR Inten    --      1.5099                42.1076                 7.8090

                      4                      5                      6
                      A                      A                      A
 Frequencies --    253.7995               321.3340               379.6497
 Red. masses --      1.3138                 3.5040                 2.8396
 Frc consts  --      0.0499                 0.2132                 0.2411
 IR Inten    --      1.4509                 0.3715                 2.2961

                      7                      8                      9
                      A                      A                      A
 Frequencies --    511.0566               594.4064               646.2582
 Red. masses --      3.5746                 1.2052                 3.5197
 Frc consts  --      0.5501                 0.2509                 0.8661
 IR Inten    --     23.9492                83.1782                25.0398

                     10                     11                     12
                      A                      A                      A
 Frequencies --    775.7585               812.5905               854.5222
 Red. masses --      4.3076                 2.4093                 1.3577
 Frc consts  --      1.5273                 0.9373                 0.5841
 IR Inten    --     32.5315                52.0444               147.5075

                     13                     14                     15
                      A                      A                      A
 Frequencies --    934.4482              1045.1798              1105.4337
 Red. masses --      1.7977                 1.4863                 2.7403
 Frc consts  --      0.9248                 0.9566                 1.9729
 IR Inten    --      3.1444                 5.2837                11.8795

                     16                     17                     18
                      A                      A                      A
 Frequencies --   1172.7802              1185.2784              1252.7777
 Red. masses --      1.6305                 1.9015                 1.9042
 Frc consts  --      1.3213                 1.5739                 1.7608
 IR Inten    --    178.3722                87.5066                27.1459

                     19                     20                     21
                      A                      A                      A
 Frequencies --   1326.8140              1359.7363              1398.4407
 Red. masses --      1.6296                 1.3148                 1.2474
 Frc consts  --      1.6902                 1.4322                 1.4372
 IR Inten    --     13.3459                18.8341                 4.3250

                     22                     23                     24
                      A                      A                      A
 Frequencies --   1450.2089              1495.2603              1507.6913
 Red. masses --      1.7669                 1.0495                 1.1879
 Frc consts  --      2.1894                 1.3825                 1.5910
 IR Inten    --     32.0495                 8.0612                21.0926

                     25                     26                     27
                      A                      A                      A
 Frequencies --   1641.2743              1872.7092              3061.8772
 Red. masses --      1.1009                 9.5373                 1.0346
 Frc consts  --      1.7472                19.7068                 5.7147
 IR Inten    --     63.5837               306.8767                12.1827

                     28                     29                     30
                      A                      A                      A
 Frequencies --   3083.5650              3140.9397              3148.8339
 Red. masses --      1.0843                 1.1034                 1.1030
 Frc consts  --      6.0743                 6.4136                 6.4434
 IR Inten    --     11.4595                15.1892                14.5206

                     31                     32                     33
                      A                      A                      A
 Frequencies --   3529.9220              3619.7851              3804.8540
 Red. masses --      1.0494                 1.0936                 1.0643
 Frc consts  --      7.7042                 8.4422                 9.0781
 IR Inten    --      7.9637                14.3020                92.1522

 - Thermochemistry -
 -------------------
 Temperature   298.150 Kelvin.  Pressure   1.00000 Atm.
 Atom     1 has atomic number  8 and mass  15.99491

 Molecular mass:    89.04768 amu.
 Principal axes and moments of inertia in atomic units:
                           1         2         3
     Eigenvalues --   353.09487 578.70871 767.73393
           X            0.99982  -0.01166  -0.01482
           Y            0.01212   0.99943   0.03146
           Z            0.01444  -0.03163   0.99940
 This molecule is an asymmetric top.
 Rotational symmetry number  1.
 Rotational temperatures (Kelvin)      0.24530     0.14967     0.11282
 Rotational constants (GHZ):           5.11121     3.11857     2.35074
 Zero-point vibrational energy     286049.9 (Joules/Mol)
                                   68.36756 (Kcal/Mol)
 Warning -- explicit consideration of   8 degrees of freedom as
           vibrations may cause significant error
 Vibrational temperatures:     94.40   328.67   349.01   365.16   462.33
          (Kelvin)            546.23   735.30   855.22   929.82  1116.14
                             1169.14  1229.47  1344.46  1503.78  1590.47
                             1687.37  1705.35  1802.47  1908.99  1956.36
                             2012.04  2086.53  2151.35  2169.23  2361.43
                             2694.41  4405.36  4436.56  4519.11  4530.47
                             5078.77  5208.06  5474.34

 Zero-point correction=                           0.108951 (Hartree/Particle)
 Thermal correction to Energy=                    0.115744
 Thermal correction to Enthalpy=                  0.116688
 Thermal correction to Gibbs Free Energy=         0.078448
 Sum of electronic and zero-point Energies=           -323.636754
 Sum of electronic and thermal Energies=              -323.629960
 Sum of electronic and thermal Enthalpies=            -323.629016
 Sum of electronic and thermal Free Energies=         -323.667257

                     E (Thermal)             CV                S
                      KCal/Mol        Cal/Mol-Kelvin    Cal/Mol-Kelvin
 Total                   72.630             23.837             80.483
 Electronic               0.000              0.000              0.000
 Translational            0.889              2.981             39.372
 Rotational               0.889              2.981             26.553
 Vibrational             70.853             17.875             14.558
 Vibration     1          0.597              1.971              4.281
 Vibration     2          0.651              1.798              1.891
 Vibration     3          0.659              1.775              1.784
 Vibration     4          0.665              1.756              1.704
 Vibration     5          0.707              1.633              1.303
 Vibration     6          0.750              1.514              1.041
 Vibration     7          0.866              1.225              0.631
 Vibration     8          0.952              1.044              0.459

 Optimization completed.
    -- Stationary point found.
 Normal termination of Gaussian 16 at Tue Feb 13 18:26:57 2024.
