 Gaussian 16, Revision C.01,
 Gaussian 16:  ES64L-G16RevC.01  3-Jul-2019

 --------------------------
 #p m062X def2TZVP opt freq
 --------------------------

 ------------
 5950 alanine
 ------------
 Symbolic Z-matrix:
 Charge =  0 Multiplicity = 1

 SCF Done:  E(RM062X) =  -323.738902876     A.U. after   14 cycles
 SCF Done:  E(RM062X) =  -323.743020650     A.U. after   13 cycles
 SCF Done:  E(RM062X) =  -323.743104041     A.U. after   12 cycles
 SCF Done:  E(RM062X) =  -323.743424986     A.U. after   12 cycles
 SCF Done:  E(RM062X) =  -323.743611833     A.U. after   11 cycles
 SCF Done:  E(RM062X) =  -323.743737619     A.U. after   12 cycles
 SCF Done:  E(RM062X) =  -323.743770747     A.U. after   11 cycles
 SCF Done:  E(RM062X) =  -323.743784415     A.U. after   11 cycles
 SCF Done:  E(RM062X) =  -323.743788266     A.U. after    9 cycles
 SCF Done:  E(RM062X) =  -323.743789005     A.U. after    8 cycles
 SCF Done:  E(RM062X) =  -323.743789099     A.U. after    8 cycles
 Optimization completed.
    -- Stationary point found.
 Normal termination of Gaussian 16 at Tue Feb 13 18:30:35 2024.

 --------------------------------------------------------------------
 #P Geom=AllCheck Guess=TCheck SCRF=Check GenChk RM062X/def2TZVP Freq
 --------------------------------------------------------------------

 Structure from the checkpoint file:  "/scratch/16209.qtcovimaster/Gau-160754.chk"
 ------------
 5950 alanine
 ------------
 Charge =  0 Multiplicity = 1

                         Standard orientation:
 ---------------------------------------------------------------------
 Center     Atomic      Atomic             Coordinates (Angstroms)
 Number     Number       Type             X           Y           Z
 ---------------------------------------------------------------------
      1          8           0        1.072757   -0.910168    0.765535
      2          8           0        1.675217    0.752437   -0.598024
      3          7           0       -1.271152   -1.131341   -0.521283
      4          6           0       -0.662101    0.187007   -0.426042
      5          6           0       -1.269820    1.109118    0.637784
      6          6           0        0.817669    0.054173   -0.139036
      7          1           0       -0.726866    0.670331   -1.400818
      8          1           0       -0.773057    2.080093    0.650129
      9          1           0       -2.327679    1.264345    0.423367
     10          1           0       -1.180476    0.654077    1.625740
     11          1           0       -2.264370   -1.041743   -0.698160
     12          1           0       -1.155713   -1.635167    0.350890
     13          1           0        2.027943   -0.912485    0.921500
 ---------------------------------------------------------------------

 SCF Done:  E(RM062X) =  -323.743789099     A.U. after    1 cycles

 The electronic state is 1-A.
 Alpha  occ. eigenvalues --  -19.67873 -19.62148 -14.73631 -10.67682 -10.58621
 Alpha  occ. eigenvalues --  -10.54015  -1.24517  -1.14836  -1.01022  -0.85500
 Alpha  occ. eigenvalues --   -0.76686  -0.69002  -0.60061  -0.58001  -0.55501
 Alpha  occ. eigenvalues --   -0.54490  -0.50646  -0.49338  -0.48214  -0.45199
 Alpha  occ. eigenvalues --   -0.43278  -0.40389  -0.36261  -0.31837
 Alpha virt. eigenvalues --    0.04782   0.05100   0.07695   0.10681   0.10832
 Alpha virt. eigenvalues --    0.13349   0.14969   0.16050   0.17506   0.18864
 Alpha virt. eigenvalues --    0.21042   0.24787   0.26539   0.27533   0.27708

 Mulliken charges:
               1
     1  O   -0.424354
     2  O   -0.318257
     3  N   -0.534972
     4  C   -0.046475
     5  C   -0.432964
     6  C    0.354728
     7  H    0.148953
     8  H    0.154488
     9  H    0.141454
    10  H    0.146723
    11  H    0.226967
    12  H    0.244714
    13  H    0.338994
 Sum of Mulliken charges =  -0.00000

 Dipole moment (field-independent basis, Debye):
    X=             -1.7961    Y=             -0.3318    Z=              1.8139  Tot=              2.5742
 Quadrupole moment (field-independent basis, Debye-Ang):
   XX=            -32.4804   YY=            -38.5314   ZZ=            -37.4228
   XY=             -3.8753   XZ=              3.6514   YZ=             -1.4225

  Exact polarizability:      55.207       1.071      50.101      -0.247      -2.583      44.704
 Approx polarizability:      60.695       3.301      58.741      -0.885      -5.896      54.638

                      1                      2                      3
                      A                      A                      A
 Frequencies --     50.2135               238.0764               243.4296
 Red. masses --      5.6188                 2.8574                 1.2319
 Frc consts  --      0.0083                 0.0954                 0.0430
 IR Inten    --      1.1362                 0.3778                 3.7132

                      4                      5                      6
                      A                      A                      A
 Frequencies --    257.5047               312.2382               368.6137
 Red. masses --      1.0508                 2.8795                 2.8739
 Frc consts  --      0.0411                 0.1654                 0.2301
 IR Inten    --     35.1646                 9.8828                 5.5863

                      7                      8                      9
                      A                      A                      A
 Frequencies --    538.9282               583.3271               615.5966
 Red. masses --      4.0949                 1.2615                 2.4444
 Frc consts  --      0.7007                 0.2529                 0.5458
 IR Inten    --     10.0453                81.0252                52.2285

                     10                     11                     12
                      A                      A                      A
 Frequencies --    786.5608               809.7888               860.7859
 Red. masses --      4.7000                 2.8009                 1.4252
 Frc consts  --      1.7132                 1.0822                 0.6222
 IR Inten    --     54.8795                10.0640               147.5853

                     13                     14                     15
                      A                      A                      A
 Frequencies --    930.6567              1032.7639              1104.3170
 Red. masses --      1.7266                 1.4946                 2.3318
 Frc consts  --      0.8811                 0.9393                 1.6754
 IR Inten    --      5.6067                23.8997                31.4068

                     16                     17                     18
                      A                      A                      A
 Frequencies --   1120.8926              1206.4134              1255.2929
 Red. masses --      1.8255                 1.9024                 1.7191
 Frc consts  --      1.3513                 1.6314                 1.5960
 IR Inten    --     83.7782               103.0633                35.7485

                     19                     20                     21
                      A                      A                      A
 Frequencies --   1343.2307              1369.1091              1399.0918
 Red. masses --      1.3272                 1.8858                 1.2504
 Frc consts  --      1.4109                 2.0827                 1.4421
 IR Inten    --      5.4057                48.8355                 6.0219

                     22                     23                     24
                      A                      A                      A
 Frequencies --   1426.8818              1492.8352              1502.4204
 Red. masses --      1.7229                 1.0492                 1.1112
 Frc consts  --      2.0668                 1.3776                 1.4778
 IR Inten    --     37.1775                 2.7202                17.0690

                     25                     26                     27
                      A                      A                      A
 Frequencies --   1647.7902              1879.6808              3061.7948
 Red. masses --      1.0966                10.1535                 1.0340
 Frc consts  --      1.7542                21.1366                 5.7113
 IR Inten    --     42.9459               341.8674                11.7095

                     28                     29                     30
                      A                      A                      A
 Frequencies --   3113.7868              3143.8675              3145.7631
 Red. masses --      1.0874                 1.1025                 1.1027
 Frc consts  --      6.2120                 6.4203                 6.4292
 IR Inten    --      3.1246                16.1157                15.3881

                     31                     32                     33
                      A                      A                      A
 Frequencies --   3525.7226              3611.4106              3806.9107
 Red. masses --      1.0491                 1.0937                 1.0645
 Frc consts  --      7.6839                 8.4043                 9.0893
 IR Inten    --      3.2146                 8.7624                94.6147

 - Thermochemistry -
 -------------------
 Temperature   298.150 Kelvin.  Pressure   1.00000 Atm.
 Atom     1 has atomic number  8 and mass  15.99491

 Molecular mass:    89.04768 amu.
 Principal axes and moments of inertia in atomic units:
                           1         2         3
     Eigenvalues --   355.72075 606.20176 727.53536
           X            0.99876  -0.04970   0.00366
           Y            0.04953   0.99803   0.03858
           Z           -0.00557  -0.03835   0.99925
 This molecule is an asymmetric top.
 Rotational symmetry number  1.
 Rotational temperatures (Kelvin)      0.24349     0.14288     0.11905
 Rotational constants (GHZ):           5.07348     2.97713     2.48062
 Zero-point vibrational energy     285821.9 (Joules/Mol)
                                   68.31308 (Kcal/Mol)
 Warning -- explicit consideration of   9 degrees of freedom as
           vibrations may cause significant error
 Vibrational temperatures:     72.25   342.54   350.24   370.49   449.24
          (Kelvin)            530.35   775.40   839.28   885.71  1131.69
                             1165.11  1238.48  1339.01  1485.92  1588.87
                             1612.71  1735.76  1806.09  1932.61  1969.84
                             2012.98  2052.96  2147.86  2161.65  2370.80
                             2704.44  4405.24  4480.04  4523.32  4526.05
                             5072.73  5196.01  5477.30

 Zero-point correction=                           0.108864 (Hartree/Particle)
 Thermal correction to Energy=                    0.115694
 Thermal correction to Enthalpy=                  0.116638
 Thermal correction to Gibbs Free Energy=         0.078151
 Sum of electronic and zero-point Energies=           -323.634925
 Sum of electronic and thermal Energies=              -323.628095
 Sum of electronic and thermal Enthalpies=            -323.627151
 Sum of electronic and thermal Free Energies=         -323.665638

                     E (Thermal)             CV                S
                      KCal/Mol        Cal/Mol-Kelvin    Cal/Mol-Kelvin
 Total                   72.599             23.902             81.002
 Electronic               0.000              0.000              0.000
 Translational            0.889              2.981             39.372
 Rotational               0.889              2.981             26.553
 Vibrational             70.822             17.941             15.077
 Vibration     1          0.595              1.978              4.809
 Vibration     2          0.656              1.782              1.817
 Vibration     3          0.659              1.774              1.778
 Vibration     4          0.667              1.750              1.679
 Vibration     5          0.701              1.650              1.350
 Vibration     6          0.741              1.537              1.086
 Vibration     7          0.894              1.164              0.568
 Vibration     8          0.940              1.067              0.479
 Vibration     9          0.975              0.999              0.424

 Optimization completed.
    -- Stationary point found.
 Normal termination of Gaussian 16 at Tue Feb 13 18:32:25 2024.
